16
	Energy:     104.5282460
S          1.14907        0.89625       -0.51903
C          1.02865       -0.74117       -0.28359
C         -0.32872       -1.02135       -0.09656
C         -1.16256        0.12965       -0.16123
C         -0.45262        1.31022       -0.39938
H         -2.23675        0.08887       -0.03777
C         -1.01324        2.66314       -0.52144
S         -2.61495        3.07702       -0.40177
C         -0.30336        3.84376       -0.75960
C         -2.49464        4.71444       -0.63719
C         -1.13729        4.99471       -0.82424
H         -0.75764        5.99203       -1.00127
H          1.83953       -1.45671       -0.27550
H         -0.70845       -2.01864        0.08047
H         -3.30558        5.42991       -0.64526
H          0.77082        3.88462       -0.88307
